LAMMPS (2 Aug 2023 - Update 2)
# Coarse-Grained SPC/E Water

variable T   equal 300.0
variable rc  equal   9.0
variable rcD equal  10.0

units            real
boundary     p p p
atom_style   atomic
dimension    3
newton       on
comm_modify  vel yes

read_data    cg_spce.data
Reading data file ...
  orthogonal box = (0 0 0) to (40.31 40.31 40.31)
  1 by 1 by 1 MPI processor grid
  reading atoms ...
  2180 atoms
  read_data CPU = 0.002 seconds

pair_style       hybrid/overlay table spline 1000 dpd/tstat ${T} ${T} ${rc} 385262
pair_style       hybrid/overlay table spline 1000 dpd/tstat 300 ${T} ${rc} 385262
pair_style       hybrid/overlay table spline 1000 dpd/tstat 300 300 ${rc} 385262
pair_style       hybrid/overlay table spline 1000 dpd/tstat 300 300 9 385262

pair_coeff   1 1 table cg_spce_table.pot VOTCA ${rc}
pair_coeff   1 1 table cg_spce_table.pot VOTCA 9
WARNING: 16 of 351 force values in table VOTCA are inconsistent with -dE/dr.
WARNING:  Should only be flagged at inflection points (../pair_table.cpp:466)
pair_coeff   1 1 dpd/tstat 10.0 ${rcD}
pair_coeff   1 1 dpd/tstat 10.0 10

timestep    1.0
run_style   verlet

velocity all create ${T} 68768932
velocity all create 300 68768932

thermo_style custom step time temp press
thermo       100

fix 1 all    nve
dump 1 all   custom 1 cg_spce.lammpstrj id type x y z vx vy vz
run          1000
Generated 0 of 0 mixed pair_coeff terms from geometric mixing rule
Neighbor list info ...
  update: every = 1 steps, delay = 0 steps, check = yes
  max neighbors/atom: 2000, page size: 100000
  master list distance cutoff = 12
  ghost atom cutoff = 12
  binsize = 6, bins = 7 7 7
  2 neighbor lists, perpetual/occasional/extra = 2 0 0
  (1) pair table, perpetual, trim from (2)
      attributes: half, newton on, cut 11
      pair build: trim
      stencil: none
      bin: none
  (2) pair dpd/tstat, perpetual
      attributes: half, newton on
      pair build: half/bin/atomonly/newton
      stencil: half/bin/3d
      bin: standard
Per MPI rank memory allocation (min/avg/max) = 5.63 | 5.63 | 5.63 Mbytes
   Step          Time           Temp          Press     
         0   0              300            7459.7935    
       100   100            309.27219      6997.2438    
       200   200            311.23318      9940.3922    
       300   300            300.14145      7970.3486    
       400   400            293.17924      8390.7272    
       500   500            285.9647       7304.1147    
       600   600            291.15512      6605.1675    
       700   700            294.54557      7708.3815    
       800   800            288.72442      8641.2675    
       900   900            294.83288      7145.1684    
      1000   1000           291.12446      8525.4556    
Loop time of 8.49796 on 1 procs for 1000 steps with 2180 atoms

Performance: 10.167 ns/day, 2.361 hours/ns, 117.675 timesteps/s, 256.532 katom-step/s
98.6% CPU use with 1 MPI tasks x no OpenMP threads

MPI task timing breakdown:
Section |  min time  |  avg time  |  max time  |%varavg| %total
---------------------------------------------------------------
Pair    | 6.6979     | 6.6979     | 6.6979     |   0.0 | 78.82
Neigh   | 0.072524   | 0.072524   | 0.072524   |   0.0 |  0.85
Comm    | 0.025949   | 0.025949   | 0.025949   |   0.0 |  0.31
Output  | 1.6899     | 1.6899     | 1.6899     |   0.0 | 19.89
Modify  | 0.0079818  | 0.0079818  | 0.0079818  |   0.0 |  0.09
Other   |            | 0.003682   |            |       |  0.04

Nlocal:           2180 ave        2180 max        2180 min
Histogram: 1 0 0 0 0 0 0 0 0 0
Nghost:           6741 ave        6741 max        6741 min
Histogram: 1 0 0 0 0 0 0 0 0 0
Neighs:         201226 ave      201226 max      201226 min
Histogram: 1 0 0 0 0 0 0 0 0 0

Total # of neighbors = 201226
Ave neighs/atom = 92.305505
Neighbor list builds = 14
Dangerous builds = 0
Total wall time: 0:00:08
